<VTKFile type="UnstructuredGrid" version="0.1" byte_order="LittleEndian">
  <UnstructuredGrid>
    <Piece NumberOfPoints="7493" NumberOfCells="35854">
      <PointData>
        <DataArray type="Float32" Name="cellLevel" format="ascii" RangeMin="0" RangeMax="1">
          0 0 0 0 0 0
          0 0 0 0 0 0
          0 0 0 0 0 0
          0 0 0 0 0 0
          0 0 0 0 0 0
          0 0 0 0 0 0
          0 0.10000000149 0.22222222388 0.22222222388 0.071428574622 0
          0 0 0 0 0 0
          0 0 0 0 0 0
          0 0 0 0 0 0
          0.10000000149 0.22222222388 0.22222222388 0.42857143283 1 1
          0.5 0.25 0.22222222388 0.071428574622 0 0
          0 0 0 0 0 0
          0 0 0 0 0 0
          0.10000000149 0.22222222388 0.42857143283 1 1 1
          1 1 1 1 1 0.5
          0.25 0.071428574622 0 0 0 0
          0 0 0 0 0 0
          0 0.10000000149 0.42857143283 1 1 1
          1 1 1 1 1 1
          1 1 1 0.5 0.076923079789 0
          0 0 0 0 0 0
          0 0 0.10000000149 0.42857143283 1 1
          1 1 1 1 1 1
          0.5 0.076923079789 0 0 0 0
          0 0 0 0.10000000149 0.42857143283 1
          1 1 1 1 1 0.5
          0.076923079789 0 0 0 0 0
          0 0.25 1 1 1 1
          1 1 0.18181818724 0 0 0
          0 0 0.10000000149 0.42857143283 1 1
          1 1 0.5 0.076923079789 0 0
          0 0 0.25 1 1 1
          1 1 1 0.18181818724 0 0
          0 0 0.25 1 1 1
          1 0.5 0.090909093618 0 0 0.10000000149
          0.42857143283 1 1 1 1 1
          0.18181818724 0 0 0.25 1 1
          1 1 1 1 0.22222222388 0
          0 0.25 1 1 1 1
          1 1 0.18181818724 0 0 0.076923079789
          0.5 1 1 1 1 1
          0.18181818724 0 0 0 0.25 1
          1 1 1 0.42857143283 0.071428574622 0
          0 0 0.25 1 1 1
          1 1 1 0.22222222388 0 0
          0 0 0.090909093618 0.5 1 1
          1 1 0.42857143283 0.10000000149 0 0
          0 0 0 0.25 1 1
          1 1 1 1 0.22222222388 0
          0 0 0 0 0 0.090909093618
          0.5 1 1 1 1 1
          1 0.42857143283 0.10000000149 0 0 0
          0 0 0 0 0.090909093618 0.5
          1 1 1 1 1 1
          1 1 0.42857143283 0.10000000149 0 0
          0 0 0 0 0 0
          0 0.090909093618 0.5 1 1 1
          1 1 1 1 1 1
          1 1 1 0.42857143283 0.10000000149 0
          0 0 0 0 0 0
          0 0 0 0 0.090909093618 0.16666667163
          0.5 1 1 1 1 1
          1 1 1 0.42857143283 0.25 0.10000000149
          0 0 0 0 0 0
          0 0 0 0 0 0
          0 0 0.10000000149 0.22222222388 0.20000000298 0.16666667163
          0.5 0.42857143283 0.18181818724 0.20000000298 0.22222222388 0.10000000149
          0 0 0 0 0 0
          0 0 0 0 0 0
          0 0 0 0 0 0
          0 0 0.10000000149 0.083333335817 0 0
          0 0 0 0 0 0
          0 0 0 0 0 0
          0 0 0 0 0 0
          0 0 0 0 0 0
          0 0 0 0 0 0
          0 0 0 0 0 0
          0 0 0 0 0 0
          0 0 0 0 0 0
          0 0 0 0 0 0
          0 0 0 0 0 0
          0 0 0 0 0 0
          0 0 0 0 0 0
          0 0.083333335817 0.22222222388 0.22222222388 0.15000000596 0.041666667908
          0 0 0 0 0 0
          0 0 0 0 0 0
          0 0 0 0 0 0
          0.083333335817 0.22222222388 0.22222222388 0.42857143283 1 1
          0.69999998808 0.3125 0.22222222388 0.076923079789 0 0
          0 0 0 0 0 0
          0 0 0 0 0 0
          0.083333335817 0.22222222388 0.42857143283 1 1 1
          1 1 1 1 1 0.5
          0.22222222388 0.076923079789 0 0 0 0
          0 0 0 0 0 0
          0 0.083333335817 0.42857143283 1 1 1
          1 1 1 1 1 1
          1 1 1 0.5 0.076923079789 0
          0 0 0 0 0 0
          0 0 0.083333335817 0.42857143283 1 1
          1 1 1 1 1 1
          0.5 0.076923079789 0 0 0 0
          0 0 0 0.083333335817 0.42857143283 1
          1 1 1 1 1 0.5
          0.083333335817 0 0 0 0 0
          0 0.20000000298 1 1 1 1
          1 1 0.20000000298 0 0 0
          0 0 0.083333335817 0.42857143283 1 1
          1 1 0.5 0.083333335817 0 0
          0 0 0.20000000298 1 1 1
          1 1 1 0.20000000298 0 0
          0 0 0.20000000298 1 1 1
          1 0.3125 0.038461539894 0 0 0.090909093618
          0.42857143283 1 1 1 1 0.69999998808
          0.125 0 0 0.20000000298 1 1
          1 1 1 1 0.20000000298 0
          0 0.20000000298 1 1 1 1
          1 1 0.18181818724 0 0 0.076923079789
          0.5 1 1 1 1 0.69999998808
          0.11538461596 0 0 0 0.25 1
          1 1 1 0.27777779102 0.038461539894 0
          0 0 0.22222222388 1 1 1
          1 1 1 0.25 0 0
          0 0 0.083333335817 0.5 1 1
          1 1 0.42857143283 0.10000000149 0 0
          0 0 0 0.25 1 1
          1 1 1 1 0.25 0
          0 0 0 0 0 0.083333335817
          0.5 1 1 1 1 1
          1 0.42857143283 0.10000000149 0 0 0
          0 0 0 0 0.090909093618 0.5
          1 1 1 1 1 1
          1 1 0.42857143283 0.10000000149 0 0
          0 0 0 0 0 0
          0 0.083333335817 0.5 1 1 1
          1 1 1 1 1 1
          1 1 1 0.42857143283 0.10000000149 0
          0 0 0 0 0 0
          0 0 0 0 0.083333335817 0.20000000298
          0.5 1 1 1 1 1
          1 1 1 0.42857143283 0.22222222388 0.10000000149
          0 0 0 0 0 0
          0 0 0 0 0 0
          0 0 0.090909093618 0.22222222388 0.20000000298 0.35714286566
          0.69999998808 0.69999998808 0.3125 0.22222222388 0.22222222388 0.10000000149
          0 0 0 0 0 0
          0 0 0 0 0 0
          0 0 0 0 0 0
          0 0.041666667908 0.125 0.15000000596 0.045454546809 0
          0 0 0 0 0 0
          0 0 0 0 0 0
          0 0 0 0 0 0
          0 0 0 0 0 0
          0 0 0 0 0 0
          0 0 0 0 0 0
          0 0 0 0 0 0
          0 0 0 0 0 0
          0 0 0 0 0 0
          0 0 0 0 0 0
          0 0 0 0 0 0
          0 0 0 0 0 0
          0.050000000745 0.13636364043 0.22222222388 0.22222222388 0.22222222388 0.076923079789
          0 0 0 0 0 0
          0 0 0 0 0 0
          0 0 0 0 0 0
          0.083333335817 0.22222222388 0.27777779102 0.69999998808 1 1
          1 0.5 0.22222222388 0.076923079789 0 0
          0 0 0 0 0 0
          0 0 0 0 0 0
          0.083333335817 0.22222222388 0.42857143283 1 1 1
          1 1 1 1 1 0.5
          0.22222222388 0.076923079789 0 0 0 0
          0 0 0 0 0 0
          0 0.083333335817 0.42857143283 1 1 1
          1 1 1 1 1 1
          1 1 1 0.5 0.076923079789 0
          0 0 0 0 0 0
          0 0 0.083333335817 0.42857143283 1 1
          1 1 1 1 1 1
          0.5 0.076923079789 0 0 0 0
          0 0 0 0.083333335817 0.42857143283 1
          1 1 1 1 1 0.5
          0.083333335817 0 0 0 0 0
          0 0.20000000298 1 1 1 1
          1 1 0.20000000298 0 0 0
          0 0 0.083333335817 0.42857143283 1 1
          1 1 0.5 0.083333335817 0 0
          0 0 0.20000000298 1 1 1
          1 1 1 0.20000000298 0 0
          0 0.050000000745 0.27777779102 1 1 1
          1 0.18181818724 0 0 0 0.125
          0.69999998808 1 1 1 1 0.5
          0.083333335817 0 0 0.20000000298 1 1
          1 1 1 1 0.20000000298 0
          0 0.20000000298 1 1 1 1
          1 1 0.22222222388 0 0 0.15000000596
          0.69999998808 1 1 1 1 0.42857143283
          0.083333335817 0 0 0.038461539894 0.3125 1
          1 1 1 0.20000000298 0 0
          0 0 0.25 1 1 1
          1 1 1 0.22222222388 0 0
          0 0 0.083333335817 0.5 1 1
          1 1 0.42857143283 0.10000000149 0 0
          0 0 0 0.25 1 1
          1 1 1 1 0.25 0
          0 0 0 0 0 0.083333335817
          0.5 1 1 1 1 1
          1 0.42857143283 0.10000000149 0 0 0
          0 0 0 0 0.090909093618 0.5
          1 1 1 1 1 1
          1 1 0.42857143283 0.10000000149 0 0
          0 0 0 0 0 0
          0 0.076923079789 0.5 1 1 1
          1 1 1 1 1 1
          1 1 1 0.42857143283 0.10000000149 0
          0 0 0 0 0 0
          0 0 0 0 0.076923079789 0.20000000298
          0.5 1 1 1 1 1
          1 1 1 0.42857143283 0.22222222388 0.10000000149
          0 0 0 0 0 0
          0 0 0 0 0 0
          0 0 0.090909093618 0.22222222388 0.18181818724 0.5
          1 1 0.42857143283 0.22222222388 0.22222222388 0.10000000149
          0 0 0 0 0 0
          0 0 0 0 0 0
          0 0 0 0 0 0
          0 0.076923079789 0.18181818724 0.22222222388 0.090909093618 0
          0 0 0 0 0 0
          0 0 0 0 0 0
          0 0 0 0 0 0
          0 0 0 0 0 0
          0 0 0 0 0 0
          0 0 0 0 0 0
          0 0 0 0 0 0
          0 0 0 0 0 0
          0 0 0 0 0 0
          0 0 0 0 0 0
          0 0 0 0 0 0
          0 0 0 0 0 0
          0.071428574622 0.20000000298 0.20000000298 0.20000000298 0.20000000298 0.076923079789
          0 0 0 0 0 0
          0 0 0 0 0 0
          0 0 0 0 0 0
          0.071428574622 0.20000000298 0.42857143283 1 1 1
          1 0.5 0.20000000298 0.076923079789 0 0
          0 0 0 0 0 0
          0 0 0 0 0 0
          0.071428574622 0.20000000298 0.42857143283 1 1 1
          1 1 1 1 1 0.5
          0.20000000298 0.076923079789 0 0 0 0
          0 0 0 0 0 0
          0 0.071428574622 0.42857143283 1 1 1
          1 1 1 1 1 1
          1 1 1 0.5 0.076923079789 0
          0 0 0 0 0 0
          0 0 0.071428574622 0.42857143283 1 1
          1 1 1 1 1 1
          0.5 0.076923079789 0 0 0 0
          0 0 0 0.071428574622 0.42857143283 1
          1 1 1 1 1 0.5
          0.083333335817 0 0 0 0 0
          0 0.18181818724 1 1 1 1
          1 1 0.22222222388 0 0 0
          0 0 0.071428574622 0.42857143283 1 1
          1 1 0.5 0.083333335817 0 0
          0 0 0.18181818724 1 1 1
          1 1 1 0.22222222388 0 0
          0 0.083333335817 0.42857143283 1 1 1
          1 0.20000000298 0 0 0 0.18181818724
          1 1 1 1 1 0.5
          0.083333335817 0 0 0.18181818724 1 1
          1 1 1 1 0.22222222388 0
          0 0.18181818724 1 1 1 1
          1 1 0.22222222388 0 0 0.22222222388
          1 1 1 1 1 0.42857143283
          0.071428574622 0 0 0.083333335817 0.5 1
          1 1 1 0.20000000298 0 0
          0 0 0.25 1 1 1
          1 1 1 0.25 0 0
          0 0 0.083333335817 0.5 1 1
          1 1 0.42857143283 0.10000000149 0 0
          0 0 0 0.25 1 1
          1 1 1 1 0.25 0
          0 0 0 0 0 0.083333335817
          0.5 1 1 1 1 1
          1 0.42857143283 0.10000000149 0 0 0
          0 0 0 0 0.090909093618 0.5
          1 1 1 1 1 1
          1 1 0.42857143283 0.10000000149 0 0
          0 0 0 0 0 0
          0 0.076923079789 0.5 1 1 1
          1 1 1 1 1 1
          1 1 1 0.42857143283 0.10000000149 0
          0 0 0 0 0 0
          0 0 0 0 0.076923079789 0.18181818724
          0.5 1 1 1 1 1
          1 1 1 0.42857143283 0.22222222388 0.10000000149
          0 0 0 0 0 0
          0 0 0 0 0 0
          0 0 0.090909093618 0.22222222388 0.18181818724 0.5
          1 1 0.42857143283 0.22222222388 0.22222222388 0.10000000149
          0 0 0 0 0 0
          0 0 0 0 0 0
          0 0 0 0 0 0
          0 0.076923079789 0.18181818724 0.22222222388 0.10000000149 0
          0 0 0 0 0 0
          0 0 0 0 0 0
          0 0 0 0 0 0
          0 0 0 0 0 0
          0 0 0 0 0 0
          0 0 0 0 0 0
          1 1 1 1 1 1
          1 1 1 1 1 1
          1 1 1 1 1 1
          1 1 1 1 1 1
          1 1 1 1 1 1
          1 1 1 1 1 1
          1 1 1 1 1 1
          1 1 1 1 1 1
          1 1 1 1 1 1
          1 1 1 1 1 1
          1 1 1 1 1 1
          1 1 1 1 1 1
          1 1 1 1 1 1
          1 1 1 1 1 1
          1 1 1 1 1 1
          1 1 1 1 1 1
          1 1 1 1 1 1
          1 1 1 1 1 1
          1 1 1 1 1 1
          1 1 1 1 1 1
          1 1 1 1 1 1
          1 1 1 1 1 1
          1 1 1 1 1 1
          1 1 1 1 1 1
          1 1 1 1 1 1
          1 1 1 1 1 1
          1 1 1 1 1 1
          1 1 1 1 1 1
          1 1 1 1 1 1
          1 1 1 1 1 1
          1 1 1 1 1 1
          1 1 1 1 1 1
          1 1 1 1 1 1
          1 1 1 1 1 1
          1 1 1 1 1 1
          1 1 1 1 1 1
          1 1 1 1 1 1
          1 1 1 1 1 1
          1 1 1 1 1 1
          1 1 1 1 1 1
          1 1 1 1 1 1
          1 1 1 1 1 1
          1 1 1 1 1 1
          1 1 1 1 1 1
          1 1 1 1 1 1
          1 1 1 1 1 1
          1 1 1 1 1 1
          1 1 1 1 1 1
          1 1 1 1 1 1
          1 1 1 1 1 1
          1 1 1 1 1 1
          1 1 1 1 1 1
          1 1 1 1 1 1
          1 1 1 1 1 1
          1 1 1 1 1 1
          1 1 1 1 1 1
          1 1 1 1 1 1
          1 1 1 1 1 1
          1 1 1 1 1 1
          1 1 1 1 1 1
          1 1 1 1 1 1
          1 1 1 1 1 1
          1 1 1 1 1 1
          1 1 1 1 1 1
          1 1 1 1 1 1
          1 1 1 1 1 1
          1 1 1 1 1 1
          1 1 1 1 1 1
          1 1 1 1 1 1
          1 1 1 1 1 1
          1 1 1 1 1 1
          1 1 1 1 1 1
          1 1 1 1 1 1
          1 1 1 1 1 1
          1 1 1 1 1 1
          1 1 1 1 1 1
          1 1 1 1 1 1
          1 1 1 1 1 1
          1 1 1 1 1 1
          1 1 1 1 1 1
          1 1 1 1 1 1
          1 1 1 1 1 1
          1 1 1 1 1 1
          1 1 1 1 1 1
          1 1 1 1 1 1
          1 1 1 1 1 1
          1 1 1 1 1 1
          1 1 1 1 1 1
          1 1 1 1 1 1
          1 1 1 1 1 1
          1 1 1 1 1 1
          1 1 1 1 1 1
          1 1 1 1 1 1
          1 1 1 1 1 1
          1 1 1 1 1 1
          1 1 1 1 1 1
          1 1 1 1 1 1
          1 1 1 1 1 1
          1 1 1 1 1 1
          1 1 1 1 1 1
          1 1 1 1 1 1
          1 1 1 1 1 1
          1 1 1 1 1 1
          1 1 1 1 1 1
          1 1 1 1 1 1
          1 1 1 1 1 1
          1 1 1 1 1 1
          1 1 1 1 1 1
          1 1 1 1 1 1
          1 1 1 1 1 1
          1 1 1 1 1 1
          1 1 1 1 1 1
          1 1 1 1 1 1
          1 1 1 1 1 1
          1 1 1 1 1 1
          1 1 1 1 1 1
          1 1 1 1 1 1
          1 1 1 1 1 1
          1 1 1 1 1 1
          1 1 1 1 1 1
          1 1 1 1 1 1
          1 1 1 1 1 1
          1 1 1 1 1 1
          1 1 1 1 1 1
          1 1 1 1 1 1
          1 1 1 1 1 1
          1 1 1 1 1 1
          1 1 1 1 1 1
          1 1 1 1 1 1
          1 1 1 1 1 1
          1 1 1 1 1 1
          1 1 1 1 1 1
          1 1 1 1 1 1
          1 1 1 1 1 1
          1 1 1 1 1 1
          1 1 1 1 1 1
          1 1 1 1 1 1
          1 1 1 1 1 1
          1 1 1 1 1 1
          1 1 1 1 1 1
          1 1 1 1 1 1
          1 1 1 1 1 1
          1 1 1 1 1 1
          1 1 1 1 1 1
          1 1 1 1 1 1
          1 1 1 1 1 1
          1 1 1 1 1 1
          1 1 1 1 1 1
          1 1 1 1 1 1
          1 1 1 1 1 1
          1 1 1 1 1 1
          1 1 1 1 1 1
          1 1 1 1 1 1
          1 1 1 1 1 1
          1 1 1 1 1 1
          1 1 1 1 1 1
          1 1 1 1 1 1
          1 1 1 1 1 1
          1 1 1 1 1 1
          1 1 1 1 1 1
          1 1 1 1 1 1
          1 1 1 1 1 1
          1 1 1 1 1 1
          1 1 1 1 1 1
          1 1 1 1 1 1
          1 1 1 1 1 1
          1 1 1 1 1 1
          1 1 1 1 1 1
          1 1 1 1 1 1
          1 1 1 1 1 1
          1 1 1 1 1 1
          1 1 1 1 1 1
          1 1 1 1 1 1
          1 1 1 1 1 1
          1 1 1 1 1 1
          1 1 1 1 1 1
          1 1 1 1 1 1
          1 1 1 1 1 1
          1 1 1 1 1 1
          1 1 1 1 1 1
          1 1 1 1 1 1
          1 1 1 1 1 1
          1 1 1 1 1 1
          1 1 1 1 1 1
          1 1 1 1 1 1
          1 1 1 1 1 1
          1 1 1 1 1 1
          1 1 1 1 1 1
          1 1 1 1 1 1
          1 1 1 1 1 1
          1 1 1 1 1 1
          1 1 1 1 1 1
          1 1 1 1 1 1
          1 1 1 1 1 1
          1 1 1 1 1 1
          1 1 1 1 1 1
          1 1 1 1 1 1
          1 1 1 1 1 1
          1 1 1 1 1 1
          1 1 1 1 1 1
          1 1 1 1 1 1
          1 1 1 1 1 1
          1 1 1 1 1 1
          1 1 1 1 1 1
          1 1 1 1 1 1
          1 1 1 1 1 1
          1 1 1 1 1 1
          1 1 1 1 1 1
          1 1 1 1 1 1
          1 1 1 1 1 1
          1 1 1 1 1 1
          1 1 1 1 1 1
          1 1 1 1 1 1
          1 1 1 1 1 1
          1 1 1 1 1 1
          1 1 1 1 1 1
          1 1 1 1 1 1
          1 1 1 1 1 1
          1 1 1 1 1 1
          1 1 1 1 1 1
          1 1 1 1 1 1
          1 1 1 1 1 1
          1 1 1 1 1 1
          1 1 1 1 1 1
          1 1 1 1 1 1
          1 1 1 1 1 1
          1 1 1 1 1 1
          1 1 1 1 1 1
          1 1 1 1 1 1
          1 1 1 1 1 1
          1 1 1 1 1 1
          1 1 1 1 1 1
          1 1 1 1 1 1
          1 1 1 1 1 1
          1 1 1 1 1 1
          1 1 1 1 1 1
          1 1 1 1 1 1
          1 1 1 1 1 1
          1 1 1 1 1 1
          1 1 1 1 1 1
          1 1 1 1 1 1
          1 1 1 1 1 1
          1 1 1 1 1 1
          1 1 1 1 1 1
          1 1 1 1 1 1
          1 1 1 1 1 1
          1 1 1 1 1 1
          1 1 1 1 1 1
          1 1 1 1 1 1
          1 1 1 1 1 1
          1 1 1 1 1 1
          1 1 1 1 1 1
          1 1 1 1 1 1
          1 1 1 1 1 1
          1 1 1 1 1 1
          1 1 1 1 1 1
          1 1 1 1 1 1
          1 1 1 1 1 1
          1 1 1 1 1 1
          1 1 1 1 1 1
          1 1 1 1 1 1
          1 1 1 1 1 1
          1 1 1 1 1 1
          1 1 1 1 1 1
          1 1 1 1 1 1
          1 1 1 1 1 1
          1 1 1 1 1 1
          1 1 1 1 1 1
          1 1 1 1 1 1
          1 1 1 1 1 1
          1 1 1 1 1 1
          1 1 1 1 1 1
          1 1 1 1 1 1
          1 1 1 1 1 1
          1 1 1 1 1 1
          1 1 1 1 1 1
          1 1 1 1 1 1
          1 1 1 1 1 1
          1 1 1 1 1 1
          1 1 1 1 1 1
          1 1 1 1 1 1
          1 1 1 1 1 1
          1 1 1 1 1 1
          1 1 1 1 1 1
          1 1 1 1 1 1
          1 1 1 1 1 1
          1 1 1 1 1 1
          1 1 1 1 1 1
          1 1 1 1 1 1
          1 1 1 1 1 1
          1 1 1 1 1 1
          1 1 1 1 1 1
          1 1 1 1 1 1
          1 1 1 1 1 1
          1 1 1 1 1 1
          1 1 1 1 1 1
          1 1 1 1 1 1
          1 1 1 1 1 1
          1 1 1 1 1 1
          1 1 1 1 1 1
          1 1 1 1 1 1
          1 1 1 1 1 1
          1 1 1 1 1 1
          1 1 1 1 1 1
          1 1 1 1 1 1
          1 1 1 1 1 1
          1 1 1 1 1 1
          1 1 1 1 1 1
          1 1 1 1 1 1
          1 1 1 1 1 1
          1 1 1 1 1 1
          1 1 1 1 1 1
          1 1 1 1 1 1
          1 1 1 1 1 1
          1 1 1 1 1 1
          1 1 1 1 1 1
          1 1 1 1 1 1
          1 1 1 1 1 1
          1 1 1 1 1 1
          1 1 1 1 1 1
          1 1 1 1 1 1
          1 1 1 1 1 1
          1 1 1 1 1 1
          1 1 1 1 1 1
          1 1 1 1 1 1
          1 1 1 1 1 1
          1 1 1 1 1 1
          0.40000000596 0.40000000596 0.20000000298 0.40000000596 1 0.40000000596
          0.40000000596 1 0.40000000596 0.40000000596 0.20000000298 0.40000000596
          0.40000000596 0.20000000298 0.40000000596 1 0.40000000596 0.40000000596
          1 0.40000000596 1 1 0.60000002384 1
          1 1 1 1 1 0.33333334327
          1 0.60000002384 0.40000000596 1 0.40000000596 0.40000000596
          1 0.40000000596 0.40000000596 0.20000000298 0.40000000596 0.40000000596
          0.20000000298 0.40000000596 1 0.40000000596 1 1
          0.60000002384 1 1 1 1 1
          1 1 1 1 1 1
          1 1 0.33333334327 1 0.60000002384 0.40000000596
          1 0.40000000596 0.40000000596 0.20000000298 0.40000000596 0.40000000596
          0.20000000298 1 1 0.60000002384 1 1
          1 1 1 1 1 0.33333334327
          1 0.60000002384 0.40000000596 0.20000000298 0.40000000596 0.40000000596
          0.20000000298 1 1 0.60000002384 1 1
          1 1 1 1 1 0.33333334327
          1 0.60000002384 0.40000000596 0.20000000298 1 1
          0.60000002384 1 1 1 1 1
          1 1 0.33333334327 1 0.60000002384 0.40000000596
          0.20000000298 1 0.40000000596 0.40000000596 1 1
          1 1 1 1 1 0.40000000596
          0.40000000596 0.40000000596 0.33333334327 0.20000000298 1 1
          0.60000002384 1 0.33333334327 1 0.60000002384 0.40000000596
          0.20000000298 1 0.33333334327 0.40000000596 1 1
          1 1 1 1 1 0.40000000596
          0.40000000596 1 0.40000000596 0.40000000596 1 1
          1 1 0.33333334327 1 0.60000002384 0.40000000596
          0.16666667163 0.40000000596 0.33333334327 0.16666667163 1 1
          0.60000002384 1 1 1 1 0.40000000596
          0.40000000596 1 0.33333334327 0.40000000596 1 1
          1 1 1 1 1 0.40000000596
          0.33333334327 1 0.33333334327 0.40000000596 1 1
          1 1 1 1 1 0.40000000596
          0.40000000596 0.40000000596 0.16666667163 1 0.33333334327 0.60000002384
          1 1 1 1 1 0.40000000596
          0.40000000596 1 0.33333334327 0.33333334327 1 1
          1 1 1 0.40000000596 0.40000000596 0.60000002384
          0.20000000298 1 0.33333334327 0.33333334327 1 1
          1 1 1 1 1 0.40000000596
          0.33333334327 0.40000000596 0.14285714924 1 0.33333334327 0.60000002384
          1 1 1 0.40000000596 0.40000000596 0.60000002384
          0.14285714924 1 0.33333334327 0.33333334327 1 1
          1 1 1 1 1 1
          1 0.40000000596 0.33333334327 0.40000000596 0.14285714924 1
          0.33333334327 0.60000002384 1 1 1 1
          1 1 1 1 1 0.40000000596
          0.40000000596 0.60000002384 0.14285714924 0.40000000596 0.14285714924 1
          0.33333334327 0.60000002384 1 1 1 1
          1 1 1 1 1 0.40000000596
          0.40000000596 0.60000002384 0.14285714924 0.40000000596 0.14285714924 1
          0.33333334327 0.60000002384 1 1 1 1
          1 1 1 1 1 1
          1 1 1 1 1 1
          1 0.40000000596 0.40000000596 0.60000002384 0.14285714924 0.40000000596
          0.14285714924 0.40000000596 0.40000000596 1 0.33333334327 0.60000002384
          1 1 1 1 1 1
          1 1 1 1 1 1
          1 1 1 1 1 1
          1 1 1 1 1 1
          0.40000000596 0.40000000596 0.60000002384 0.33333334327 0.33333334327 0.14285714924
          0.33333334327 0.14285714924 0.40000000596 0.33333334327 0.40000000596 0.33333334327
          0.40000000596 0.40000000596 1 0.33333334327 0.60000002384 0.40000000596
          0.40000000596 0.60000002384 0.40000000596 0.40000000596 0.40000000596 0.33333334327
          0.33333334327 0.33333334327 0.14285714924 0.33333334327 0.16666667163 0.16666667163
          0.33333334327 0.40000000596 0.20000000298 0.33333334327 1 0.40000000596
          0.33333334327 1 0.40000000596 0.60000002384 0.40000000596 0.33333334327
          0.40000000596 0.20000000298 0.33333334327 1 0.40000000596 0.40000000596
          1 0.40000000596 1 1 0.60000002384 1
          1 1 1 1 1 0.60000002384
          1 1 0.33333334327 1 0.60000002384 0.33333334327
          1 0.40000000596 0.40000000596 0.20000000298 0.33333334327 0.40000000596
          0.20000000298 0.40000000596 1 0.40000000596 1 1
          0.60000002384 1 1 1 1 1
          1 1 1 1 1 1
          1 1 0.33333334327 1 0.60000002384 0.33333334327
          1 0.40000000596 0.40000000596 0.20000000298 0.40000000596 0.40000000596
          0.20000000298 1 1 0.60000002384 1 1
          1 1 1 1 1 0.33333334327
          1 0.60000002384 0.40000000596 0.20000000298 0.40000000596 0.40000000596
          0.20000000298 1 1 0.60000002384 1 1
          1 1 1 1 1 0.33333334327
          1 0.60000002384 0.40000000596 0.20000000298 1 1
          0.60000002384 1 1 1 1 1
          1 1 0.33333334327 1 0.60000002384 0.33333334327
          0.20000000298 1 0.40000000596 0.40000000596 1 1
          1 1 1 1 1 0.40000000596
          0.40000000596 0.40000000596 0.40000000596 0.20000000298 1 1
          0.60000002384 1 0.33333334327 1 0.60000002384 0.33333334327
          0.20000000298 1 0.40000000596 0.40000000596 1 1
          1 1 1 1 1 0.40000000596
          0.40000000596 1 0.40000000596 0.40000000596 1 1
          1 1 0.16666667163 0.60000002384 0.40000000596 0.20000000298
          0.40000000596 0.40000000596 0.20000000298 1 1 0.60000002384
          1 0.60000002384 1 0.60000002384 0.40000000596 0.14285714924
          1 0.40000000596 0.40000000596 1 1 1
          1 1 1 1 0.40000000596 0.33333334327
          1 0.40000000596 0.40000000596 1 1 1
          1 1 1 1 0.40000000596 0.33333334327
          0.40000000596 0.16666667163 1 0.33333334327 0.60000002384 1
          1 0.60000002384 0.60000002384 0.60000002384 0.20000000298 0.16666667163
          1 0.40000000596 0.40000000596 1 1 1
          1 1 0.20000000298 0.40000000596 0.40000000596 1
          0.40000000596 0.33333334327 1 1 1 1
          1 1 1 0.33333334327 0.33333334327 0.40000000596
          0.14285714924 1 0.33333334327 0.60000002384 1 1
          1 0.40000000596 0.40000000596 0.60000002384 0.14285714924 1
          0.40000000596 0.33333334327 1 1 1 1
          1 1 1 1 1 0.33333334327
          0.33333334327 0.40000000596 0.14285714924 1 0.33333334327 0.60000002384
          1 1 1 1 1 1
          1 1 1 0.40000000596 0.40000000596 0.60000002384
          0.14285714924 0.40000000596 0.14285714924 1 0.33333334327 0.60000002384
          1 1 1 1 1 1
          1 1 1 0.40000000596 0.40000000596 0.60000002384
          0.14285714924 0.40000000596 0.16666667163 1 0.33333334327 0.60000002384
          1 1 1 1 1 1
          1 1 1 1 1 1
          1 1 1 0.40000000596 0.40000000596 0.60000002384
          0.14285714924 0.40000000596 0.16666667163 0.40000000596 0.33333334327 1
          0.33333334327 0.60000002384 1 1 1 1
          1 1 1 1 1 1
          1 1 1 1 1 1
          1 1 1 1 1 0.40000000596
          0.40000000596 0.60000002384 0.40000000596 0.33333334327 0.14285714924 0.40000000596
          0.14285714924 0.40000000596 0.33333334327 0.40000000596 0.40000000596 0.60000002384
          0.14285714924 0.60000002384 1 0.60000002384 1 0.60000002384
          0.60000002384 1 0.40000000596 0.16666667163 0.60000002384 0.40000000596
          0.33333334327 0.40000000596 0.33333334327 0.14285714924 0.20000000298 0.16666667163
          0.40000000596 0.40000000596 0.16666667163 0.33333334327 0.16666667163 0.16666667163
          0.20000000298 0.20000000298 0.33333334327 0.60000002384 0.40000000596 0.33333334327
          1 0.40000000596 0.33333334327 1 0.40000000596 0.33333334327
          1 0.40000000596 0.40000000596 0.20000000298 0.33333334327 0.40000000596
          0.20000000298 0.40000000596 1 0.40000000596 0.60000002384 1
          0.60000002384 1 1 1 1 1
          1 1 1 1 1 1
          1 0.33333334327 1 0.60000002384 0.33333334327 1
          0.40000000596 0.40000000596 0.20000000298 0.33333334327 0.40000000596 0.20000000298
          0.40000000596 1 0.40000000596 1 1 0.60000002384
          1 1 1 1 1 1
          1 1 1 1 1 1
          1 0.33333334327 1 0.60000002384 0.33333334327 1
          0.40000000596 0.40000000596 0.20000000298 0.40000000596 0.40000000596 0.20000000298
          1 1 0.60000002384 1 1 1
          1 1 1 1 0.33333334327 1
          0.60000002384 0.40000000596 0.20000000298 0.40000000596 0.40000000596 0.20000000298
          1 1 0.60000002384 1 1 1
          1 1 1 1 0.33333334327 1
          0.60000002384 0.40000000596 0.20000000298 1 1 0.60000002384
          1 1 1 1 1 1
          1 0.33333334327 1 0.60000002384 0.33333334327 0.20000000298
          1 0.40000000596 0.40000000596 1 1 1
          1 1 1 1 0.40000000596 0.40000000596
          0.40000000596 0.40000000596 0.20000000298 1 1 0.60000002384
          1 0.33333334327 1 0.60000002384 0.33333334327 0.20000000298
          1 0.40000000596 0.40000000596 1 1 1
          1 1 1 1 0.40000000596 0.40000000596
          0.20000000298 0.20000000298 0.16666667163 1 0.60000002384 0.60000002384
          1 1 1 1 0.40000000596 0.40000000596
          0.60000002384 0.40000000596 0.40000000596 1 1 1
          1 0.33333334327 1 0.60000002384 0.40000000596 0.16666667163
          1 0.40000000596 0.40000000596 1 1 1
          1 1 1 1 0.40000000596 0.33333334327
          1 0.40000000596 0.40000000596 1 1 1
          1 1 1 1 0.33333334327 0.33333334327
          0.60000002384 0.33333334327 1 0.60000002384 1 1
          1 0.40000000596 0.40000000596 0.60000002384 0.20000000298 1
          0.33333334327 0.60000002384 1 1 1 1
          1 0.40000000596 0.40000000596 1 0.40000000596 0.33333334327
          1 1 1 1 1 1
          1 0.33333334327 0.33333334327 0.40000000596 0.14285714924 1
          0.33333334327 0.60000002384 1 1 1 0.40000000596
          0.40000000596 0.60000002384 0.14285714924 1 0.40000000596 0.33333334327
          1 1 1 1 1 1
          1 1 1 0.33333334327 0.33333334327 0.40000000596
          0.14285714924 1 0.33333334327 0.60000002384 1 1
          1 1 1 1 1 1
          1 0.40000000596 0.40000000596 0.60000002384 0.14285714924 0.40000000596
          0.14285714924 1 0.33333334327 0.60000002384 1 1
          1 1 1 1 1 1
          1 0.40000000596 0.40000000596 0.60000002384 0.14285714924 0.40000000596
          0.16666667163 1 0.33333334327 0.60000002384 1 1
          1 1 1 1 1 1
          1 1 1 1 1 0.40000000596
          0.40000000596 0.60000002384 0.14285714924 0.40000000596 0.16666667163 0.40000000596
          0.40000000596 1 0.33333334327 0.60000002384 1 1
          1 1 1 1 1 1
          1 1 1 1 1 1
          1 1 1 0.40000000596 0.40000000596 0.60000002384
          0.40000000596 0.33333334327 0.14285714924 0.40000000596 0.14285714924 0.40000000596
          0.33333334327 0.40000000596 0.40000000596 1 0.33333334327 0.60000002384
          1 1 1 1 1 1
          0.40000000596 0.40000000596 0.60000002384 0.40000000596 0.33333334327 0.40000000596
          0.33333334327 0.14285714924 0.40000000596 0.16666667163 0.40000000596 0.40000000596
          0.40000000596 0.33333334327 0.16666667163 0.33333334327 0.40000000596 0.33333334327
          1 0.33333334327 1 0.33333334327 1 0.33333334327
          1 0.40000000596 0.33333334327 0.40000000596 0.40000000596 1
          1 1 1 1 1 1
          1 1 1 1 0.33333334327 1
          0.33333334327 1 0.40000000596 0.33333334327 0.40000000596 0.40000000596
          1 1 1 1 1 1
          1 1 1 1 1 1
          0.33333334327 1 0.33333334327 1 0.40000000596 0.40000000596
          0.40000000596 1 1 1 1 1
          1 1 0.33333334327 1 0.40000000596 0.40000000596
          0.40000000596 1 1 1 1 1
          1 1 0.33333334327 1 0.40000000596 1
          1 1 1 1 1 1
          0.33333334327 1 0.33333334327 1 0.40000000596 1
          1 1 1 1 0.40000000596 0.40000000596
          0.40000000596 1 1 1 0.33333334327 1
          0.33333334327 1 0.40000000596 1 1 1
          1 1 0.40000000596 0.40000000596 0.40000000596 1
          1 1 1 1 0.40000000596 1